LAMMPS 2005 data file for ../materials/mica15_$	

    630 atoms
    900 bonds
   2340 angles
   5400 dihedrals
    180 impropers

  17 atom types
  32 bond types
  91 angle types
 236 dihedral types
   8 improper types

     0.000000000    25.959000000 xlo xhi
     0.000000000    27.045900000 ylo yhi
     0.000000000   120.045700000 zlo zhi

Masses

   1  26.981539
   2  28.086000
   3  28.086000
   4   1.008000
   5  15.999400
   6  15.999400
   7  15.999400
   8  15.999400
   9  15.999400
  10  15.999400
  11  26.981539
  12  15.999400
  13  15.999400
  14  15.999400
  15  26.981539
  16  39.098301
  17  26.981539

Pair Coeffs

   1   0.0499985413   3.7417892034 
   2   0.0499976636   3.5636226265 
   3   0.0499976636   3.5636226265 
   4   0.0149825188   0.9666679938 
   5   0.0249929273   3.1182174599 
   6   0.0249929273   3.1182174599 
   7   0.0249929273   3.1182174599 
   8   0.0249929273   3.1182174599 
   9   0.0249929273   3.1182174599 
  10   0.0249929273   3.1182174599 
  11   0.0499985413   3.7417892034 
  12   0.0249929273   3.1182174599 
  13   0.0249929273   3.1182174599 
  14   0.0249929273   3.1182174599 
  15   0.0499985413   3.7417892034 
  16   0.2000137003   3.3853884006 
  17   0.0499985413   3.7417892034 

Bond Coeffs

  1   430.0000     2.0433 
  2   430.0000     2.0234 
  3   430.0000     2.0412 
  4   430.0000     2.0212 
  5   430.0000     2.0128 
  6   430.0000     2.0170 
  7   430.0000     1.7262 
  8   430.0000     1.7315 
  9   430.0000     1.7167 
 10   430.0000     1.7430 
 11   430.0000     1.7304 
 12   430.0000     1.7283 
 13   430.0000     1.7230 
 14   430.0000     1.7230 
 15   495.0000     0.9290 
 16   430.0000     2.0412 
 17   430.0000     2.0234 
 18   430.0000     2.0170 
 19   430.0000     2.0433 
 20   430.0000     2.0212 
 21   430.0000     2.0128 
 22   430.0000     1.7315 
 23   430.0000     1.7304 
 24   495.0000     0.9290 
 25   430.0000     1.7304 
 26   430.0000     1.7283 
 27   430.0000     1.7230 
 28   430.0000     1.7230 
 29   430.0000     1.7430 
 30   430.0000     1.7262 
 31   430.0000     1.7315 
 32   430.0000     1.7167 

Angle Coeffs

  1   170.0000    78.4000 
  2   170.0000    98.2000 
  3   170.0000    92.9000 
  4   170.0000    92.9000 
  5   170.0000   167.3000 
  6   170.0000    92.8000 
  7   170.0000   166.7000 
  8   170.0000    95.8000 
  9   170.0000    94.8000 
 10   170.0000    78.4000 
 11   170.0000   167.1000 
 12   170.0000    92.7000 
 13   170.0000    94.7000 
 14   170.0000    95.6000 
 15   170.0000    77.0000 
 16   170.0000   110.0000 
 17   170.0000   110.0000 
 18   170.0000   107.0000 
 19   170.0000   112.5000 
 20   170.0000   110.3000 
 21   170.0000   106.7000 
 22   170.0000   110.2000 
 23   170.0000   110.4000 
 24   170.0000   112.2000 
 25   170.0000   107.3000 
 26   170.0000   107.0000 
 27   170.0000   109.6000 
 28   170.0000   128.8000 
 29   170.0000   139.9000 
 30   170.0000   128.2000 
 31   170.0000   123.7000 
 32   170.0000   127.5000 
 33   170.0000   101.6000 
 34   170.0000   127.2000 
 35   170.0000   101.6000 
 36   170.0000   123.8000 
 37    45.0000   126.0000 
 38    45.0000   126.0000 
 39   170.0000   103.0000 
 40   170.0000    92.8000 
 41   170.0000    92.7000 
 42   170.0000    98.2000 
 43   170.0000    78.4000 
 44   170.0000   167.1000 
 45   170.0000    94.8000 
 46   170.0000    78.4000 
 47   170.0000   166.7000 
 48   170.0000    95.8000 
 49   170.0000   167.3000 
 50   170.0000    95.6000 
 51   170.0000    77.0000 
 52   170.0000    92.9000 
 53   170.0000    92.9000 
 54   170.0000    94.7000 
 55   170.0000   112.5000 
 56   170.0000   110.3000 
 57   170.0000   110.0000 
 58   170.0000   110.2000 
 59   170.0000   110.4000 
 60   170.0000   112.2000 
 61   170.0000   127.5000 
 62   170.0000   101.6000 
 63   170.0000   123.7000 
 64   170.0000   127.2000 
 65   170.0000   101.6000 
 66   170.0000   123.8000 
 67    45.0000   126.0000 
 68    45.0000   126.0000 
 69   170.0000   103.0000 
 70   170.0000   110.2000 
 71   170.0000   110.4000 
 72   170.0000   112.2000 
 73   170.0000   107.3000 
 74   170.0000   107.0000 
 75   170.0000   109.6000 
 76   170.0000   128.8000 
 77   170.0000   139.9000 
 78   170.0000   128.2000 
 79   170.0000   127.2000 
 80   170.0000   123.8000 
 81   170.0000   128.2000 
 82   170.0000   110.0000 
 83   170.0000   110.0000 
 84   170.0000   107.0000 
 85   170.0000   112.5000 
 86   170.0000   110.3000 
 87   170.0000   106.7000 
 88   170.0000   139.9000 
 89   170.0000   123.7000 
 90   170.0000   127.5000 
 91   170.0000   128.8000 

Dihedral Coeffs

  1     0.0000     1.0000     2.0000 
  2     0.0000     1.0000     2.0000 
  3     0.0000     1.0000     2.0000 
  4     0.0000     1.0000     2.0000 
  5     0.0000     1.0000     2.0000 
  6     0.0000     1.0000     2.0000 
  7     0.0000     1.0000     2.0000 
  8     0.0000     1.0000     2.0000 
  9     0.0000     1.0000     2.0000 
 10     0.0000     1.0000     2.0000 
 11     0.0000     1.0000     2.0000 
 12     0.0000     1.0000     2.0000 
 13     0.0000     1.0000     2.0000 
 14     0.0000     1.0000     2.0000 
 15     0.0000     1.0000     2.0000 
 16     0.0000     1.0000     2.0000 
 17     0.0000     1.0000     2.0000 
 18     0.0000     1.0000     2.0000 
 19     0.0000     1.0000     2.0000 
 20     0.0000     1.0000     2.0000 
 21     0.0000     1.0000     2.0000 
 22     0.0000     1.0000     2.0000 
 23     0.0000     1.0000     2.0000 
 24     0.0000     1.0000     2.0000 
 25     0.0000     1.0000     2.0000 
 26     0.0000     1.0000     2.0000 
 27     0.0000     1.0000     2.0000 
 28     0.0000     1.0000     2.0000 
 29     0.0000     1.0000     2.0000 
 30     0.0000     1.0000     2.0000 
 31     0.0000     1.0000     2.0000 
 32     0.0000     1.0000     2.0000 
 33     0.0000     1.0000     2.0000 
 34     0.0000     1.0000     2.0000 
 35     0.0000     1.0000     2.0000 
 36     0.0000     1.0000     2.0000 
 37     0.0000     1.0000     2.0000 
 38     0.0000     1.0000     2.0000 
 39     0.0000     1.0000     2.0000 
 40     0.0000     1.0000     2.0000 
 41     0.0000     1.0000     2.0000 
 42     0.0000     1.0000     2.0000 
 43     0.0000     1.0000     2.0000 
 44     0.0000     1.0000     2.0000 
 45     0.0000     1.0000     2.0000 
 46     0.0000     1.0000     2.0000 
 47     0.0000     1.0000     2.0000 
 48     0.0000     1.0000     2.0000 
 49     0.0000     1.0000     2.0000 
 50     0.0000     1.0000     2.0000 
 51     0.0000     1.0000     2.0000 
 52     0.0000     1.0000     2.0000 
 53     0.0000     1.0000     2.0000 
 54     0.0000     1.0000     2.0000 
 55     0.0000     1.0000     2.0000 
 56     0.0000     1.0000     2.0000 
 57     0.0000     1.0000     2.0000 
 58     0.0000     1.0000     2.0000 
 59     0.0000     1.0000     2.0000 
 60     0.0000     1.0000     2.0000 
 61     0.0000     1.0000     3.0000 
 62     0.0000     1.0000     3.0000 
 63     0.0000     1.0000     3.0000 
 64     0.0000     1.0000     3.0000 
 65     0.0000     1.0000     3.0000 
 66     0.0000     1.0000     3.0000 
 67     0.0000     1.0000     3.0000 
 68     0.0000     1.0000     3.0000 
 69     0.0000     1.0000     3.0000 
 70     0.0000     1.0000     3.0000 
 71     0.0000     1.0000     3.0000 
 72     0.0000     1.0000     3.0000 
 73     0.0000     1.0000     3.0000 
 74     0.0000     1.0000     3.0000 
 75     0.0000     1.0000     3.0000 
 76     0.0000     1.0000     3.0000 
 77     0.0000     1.0000     3.0000 
 78     0.0000     1.0000     3.0000 
 79     0.0000     1.0000     3.0000 
 80     0.0000     1.0000     3.0000 
 81     0.0000     1.0000     3.0000 
 82     0.0000     1.0000     3.0000 
 83     0.0000     1.0000     3.0000 
 84     0.0000     1.0000     3.0000 
 85     0.0000     1.0000     3.0000 
 86     0.0000     1.0000     3.0000 
 87     0.0000     1.0000     3.0000 
 88     0.0000     1.0000     3.0000 
 89     0.0000     1.0000     3.0000 
 90     0.0000     1.0000     3.0000 
 91     0.0000     1.0000     3.0000 
 92     0.0000     1.0000     3.0000 
 93     0.0000     1.0000     3.0000 
 94     0.0000     1.0000     2.0000 
 95     0.0000     1.0000     2.0000 
 96     0.0000     1.0000     2.0000 
 97     0.0000     1.0000     2.0000 
 98     0.0000     1.0000     2.0000 
 99     0.0000     1.0000     2.0000 
100     0.0000     1.0000     2.0000 
101     0.0000     1.0000     2.0000 
102     0.0000     1.0000     2.0000 
103     0.0000     1.0000     2.0000 
104     0.0000     1.0000     2.0000 
105     0.0000     1.0000     2.0000 
106     0.0000     1.0000     2.0000 
107     0.0000     1.0000     2.0000 
108     0.0000     1.0000     2.0000 
109     0.0000     1.0000     2.0000 
110     0.0000     1.0000     2.0000 
111     0.0000     1.0000     2.0000 
112     0.0000     1.0000     2.0000 
113     0.0000     1.0000     2.0000 
114     0.0000     1.0000     2.0000 
115     0.0000     1.0000     2.0000 
116     0.0000     1.0000     2.0000 
117     0.0000     1.0000     2.0000 
118     0.0000     1.0000     2.0000 
119     0.0000     1.0000     2.0000 
120     0.0000     1.0000     2.0000 
121     0.0000     1.0000     2.0000 
122     0.0000     1.0000     2.0000 
123     0.0000     1.0000     2.0000 
124     0.0000     1.0000     2.0000 
125     0.0000     1.0000     2.0000 
126     0.0000     1.0000     2.0000 
127     0.0000     1.0000     2.0000 
128     0.0000     1.0000     2.0000 
129     0.0000     1.0000     2.0000 
130     0.0000     1.0000     2.0000 
131     0.0000     1.0000     2.0000 
132     0.0000     1.0000     2.0000 
133     0.0000     1.0000     2.0000 
134     0.0000     1.0000     2.0000 
135     0.0000     1.0000     2.0000 
136     0.0000     1.0000     2.0000 
137     0.0000     1.0000     2.0000 
138     0.0000     1.0000     2.0000 
139     0.0000     1.0000     2.0000 
140     0.0000     1.0000     2.0000 
141     0.0000     1.0000     2.0000 
142     0.0000     1.0000     2.0000 
143     0.0000     1.0000     2.0000 
144     0.0000     1.0000     2.0000 
145     0.0000     1.0000     2.0000 
146     0.0000     1.0000     2.0000 
147     0.0000     1.0000     2.0000 
148     0.0000     1.0000     2.0000 
149     0.0000     1.0000     2.0000 
150     0.0000     1.0000     2.0000 
151     0.0000     1.0000     2.0000 
152     0.0000     1.0000     2.0000 
153     0.0000     1.0000     2.0000 
154     0.0000     1.0000     3.0000 
155     0.0000     1.0000     3.0000 
156     0.0000     1.0000     3.0000 
157     0.0000     1.0000     3.0000 
158     0.0000     1.0000     3.0000 
159     0.0000     1.0000     3.0000 
160     0.0000     1.0000     3.0000 
161     0.0000     1.0000     3.0000 
162     0.0000     1.0000     3.0000 
163     0.0000     1.0000     3.0000 
164     0.0000     1.0000     3.0000 
165     0.0000     1.0000     3.0000 
166     0.0000     1.0000     3.0000 
167     0.0000     1.0000     3.0000 
168     0.0000     1.0000     3.0000 
169     0.0000     1.0000     3.0000 
170     0.0000     1.0000     3.0000 
171     0.0000     1.0000     3.0000 
172     0.0000     1.0000     3.0000 
173     0.0000     1.0000     3.0000 
174     0.0000     1.0000     3.0000 
175     0.0000     1.0000     2.0000 
176     0.0000     1.0000     2.0000 
177     0.0000     1.0000     2.0000 
178     0.0000     1.0000     2.0000 
179     0.0000     1.0000     2.0000 
180     0.0000     1.0000     3.0000 
181     0.0000     1.0000     3.0000 
182     0.0000     1.0000     3.0000 
183     0.0000     1.0000     3.0000 
184     0.0000     1.0000     3.0000 
185     0.0000     1.0000     3.0000 
186     0.0000     1.0000     3.0000 
187     0.0000     1.0000     3.0000 
188     0.0000     1.0000     3.0000 
189     0.0000     1.0000     3.0000 
190     0.0000     1.0000     3.0000 
191     0.0000     1.0000     3.0000 
192     0.0000     1.0000     3.0000 
193     0.0000     1.0000     3.0000 
194     0.0000     1.0000     3.0000 
195     0.0000     1.0000     3.0000 
196     0.0000     1.0000     3.0000 
197     0.0000     1.0000     3.0000 
198     0.0000     1.0000     3.0000 
199     0.0000     1.0000     3.0000 
200     0.0000     1.0000     3.0000 
201     0.0000     1.0000     2.0000 
202     0.0000     1.0000     2.0000 
203     0.0000     1.0000     2.0000 
204     0.0000     1.0000     2.0000 
205     0.0000     1.0000     2.0000 
206     0.0000     1.0000     3.0000 
207     0.0000     1.0000     3.0000 
208     0.0000     1.0000     3.0000 
209     0.0000     1.0000     3.0000 
210     0.0000     1.0000     3.0000 
211     0.0000     1.0000     3.0000 
212     0.0000     1.0000     2.0000 
213     0.0000     1.0000     2.0000 
214     0.0000     1.0000     2.0000 
215     0.0000     1.0000     2.0000 
216     0.0000     1.0000     2.0000 
217     0.0000     1.0000     3.0000 
218     0.0000     1.0000     3.0000 
219     0.0000     1.0000     3.0000 
220     0.0000     1.0000     3.0000 
221     0.0000     1.0000     3.0000 
222     0.0000     1.0000     3.0000 
223     0.0000     1.0000     3.0000 
224     0.0000     1.0000     3.0000 
225     0.0000     1.0000     3.0000 
226     0.0000     1.0000     3.0000 
227     0.0000     1.0000     3.0000 
228     0.0000     1.0000     3.0000 
229     0.0000     1.0000     2.0000 
230     0.0000     1.0000     2.0000 
231     0.0000     1.0000     2.0000 
232     0.0000     1.0000     2.0000 
233     0.0000     1.0000     2.0000 
234     0.0000     1.0000     3.0000 
235     0.0000     1.0000     3.0000 
236     0.0000     1.0000     3.0000 

Improper Coeffs

  1     0.0000     0.0000     0.0000 
  2     0.0000     0.0000     0.0000 
  3     0.0000     0.0000     0.0000 
  4     0.0000     0.0000     0.0000 
  5     0.0000     0.0000     0.0000 
  6     0.0000     0.0000     0.0000 
  7     0.0000     0.0000     0.0000 
  8     0.0000     0.0000     0.0000 

Atoms

      1      0   1  1.449000     0.798051059     0.752777576     4.987912178
      2      0   2  1.100000     1.639850616     8.376114845     7.689511776
      3      0   3  1.100000     1.572237015     2.326848984     7.690708637
      4      0   4  0.200000     1.314220071     5.859043598     6.181044102
      5      0   5 -0.550000     1.325521231     0.835718334     8.343121529
      6      0   6 -0.550000     0.483616710     7.308703899     8.134293556
      7      0   7 -0.550000     0.460305274     3.338365555     8.350900650
      8      0   8 -0.758000     1.785616159     8.503231049     6.051997185
      9      0   9 -0.758000     1.395611882     2.267348051     6.052994728
     10      0  10 -0.683000     1.769282341     5.072909355     5.987174988
     11      0  11  1.448000     3.392194986     8.262522697     4.984720707
     12      0   2  1.100000     2.550395250     0.639184773     2.283121347
     13      0   3  1.100000     2.618008852     6.688451290     2.281923532
     14      0   4  0.200000     2.876025915     3.156256437     3.791589975
     15      0   5 -0.783000     2.864724636     8.179581642     1.629511118
     16      0   6 -0.550000     3.706629276     1.706596255     1.838339090
     17      0   7 -0.550000     3.729940653     5.676934242     1.621732950
     18      0  12 -0.758000     2.404629707     0.512069046     3.920635462
     19      0  13 -0.758000     2.794634104     6.747951984     3.919637918
     20      0  14 -0.683000     2.420963526     3.942390680     3.985458612
     21      0   1  1.449000     3.393951178     5.260427475     4.987912178
     22      0   2  1.100000     4.235750198     3.868465185     7.689511776
     23      0   3  1.100000     4.168137074     6.834498882     7.690708637
     24      0   4  0.200000     3.910120249     1.351393461     6.181044102
     25      0   5 -0.550000     3.921421289     5.343368530     8.343121529
     26      0   6 -0.550000     3.079516649     2.801053762     8.134293556
     27      0   7 -0.550000     3.056205273     7.846015453     8.350900650
     28      0   8 -0.758000     4.381515980     3.995580912     6.051997185
     29      0   9 -0.758000     3.991512060     6.774998188     6.052994728
     30      0  10 -0.683000     4.365182400     0.565259337     5.987174988
     31      0  11  1.448000     0.796294868     3.754872561     4.984720707
     32      0   2  1.100000    -0.045504685     5.146834850     2.283121347
     33      0   3  1.100000     0.022108918     2.180801153     2.281923532
     34      0   4  0.200000     0.280125856     7.663906574     3.791589975
     35      0   5 -0.550000     0.268824697     3.671931744     1.629511118
     36      0   6 -0.550000     1.110729218     6.214246273     1.838339090
     37      0   7 -0.550000     1.134040594     1.169284463     1.621732950
     38      0  12 -0.758000    -0.191270232     5.019719124     3.920635462
     39      0  13 -0.758000     0.198734045     2.240302086     3.919637918
     40      0  14 -0.683000    -0.174936414     8.450040817     3.985458612
     41      0   1  1.449000     0.798051059     9.768077850     4.987912178
     42      0   2  1.100000     1.639850616    17.391414642     7.689511776
     43      0  15  0.800000     1.572237015    11.342148781     7.690708637
     44      0   4  0.200000     1.314220071    14.874343872     6.181044102
     45      0   5 -0.783000     1.325521231     9.851017952     8.343121529
     46      0   6 -0.783000     0.483616710    16.324003220     8.134293556
     47      0   7 -0.783000     0.460305274    12.353665352     8.350900650
     48      0   8 -0.758000     1.785616159    17.518531799     6.051997185
     49      0   9 -0.758000     1.395611882    11.282648087     6.052994728
     50      0  10 -0.683000     1.769282341    14.088209152     5.987174988
     51      0  11  1.448000     3.392194986    17.277822495     4.984720707
     52      0   2  0.800000     2.550395250     9.654484749     2.283121347
     53      0   3  1.100000     2.618008852    15.703751564     2.281923532
     54      0   4  0.200000     2.876025915    12.171556473     3.791589975
     55      0   5 -0.550000     2.864724636    17.194881439     1.629511118
     56      0   6 -0.783000     3.706629276    10.721896172     1.838339090
     57      0   7 -0.783000     3.729940653    14.692234039     1.621732950
     58      0  12 -0.758000     2.404629707     9.527369499     3.920635462
     59      0  13 -0.758000     2.794634104    15.763252258     3.919637918
     60      0  14 -0.683000     2.420963526    12.957690239     3.985458612
     61      0   1  1.449000     3.393951178    14.275727272     4.987912178
     62      0   2  1.100000     4.235750198    12.883765221     7.689511776
     63      0  15  0.800000     4.168137074    15.849799156     7.690708637
     64      0  16  1.000000     1.594343424    14.406449318     9.972658157
     65      0   4  0.200000     3.910120249    10.366693497     6.181044102
     66      0   5 -0.783000     3.921421289    14.358668327     8.343121529
     67      0   6 -0.783000     3.079516649    11.816353798     8.134293556
     68      0   7 -0.783000     3.056205273    16.861314774     8.350900650
     69      0   8 -0.758000     4.381515980    13.010880470     6.051997185
     70      0   9 -0.758000     3.991512060    15.790298462     6.052994728
     71      0  10 -0.683000     4.365182400     9.580559731     5.987174988
     72      0  11  1.448000     0.796294868    12.770172119     4.984720707
     73      0   2  0.800000    -0.045504685    14.162135124     2.283121347
     74      0   3  1.100000     0.022108918    11.196101189     2.281923532
     75      0   4  0.200000     0.280125856    16.679206848     3.791589975
     76      0   5 -0.783000     0.268824697    12.687232018     1.629511118
     77      0   6 -0.783000     1.110729218    15.229546547     1.838339090
     78      0   7 -0.783000     1.134040594    10.184584618     1.621732950
     79      0  12 -0.758000    -0.191270232    14.035018921     3.920635462
     80      0  13 -0.758000     0.198734045    11.255601883     3.919637918
     81      0  14 -0.683000    -0.174936414    17.465341568     3.985458612
     82      0   1  1.449000     0.798051059    18.783376694     4.987912178
     83      0   2  1.100000     1.639850616    26.406715393     7.689511776
     84      0   3  1.100000     1.572237015    20.357448578     7.690708637
     85      0  16  1.000000    -1.001556635    18.914098740     9.972658157
     86      0   4  0.200000     1.314220071    23.889642715     6.181044102
     87      0   5 -0.550000     1.325521231    18.866317749     8.343121529
     88      0   6 -0.550000     0.483616710    25.339303970     8.134293556
     89      0   7 -0.783000     0.460305274    21.368965149     8.350900650
     90      0   8 -0.758000     1.785616159    26.533830643     6.051997185
     91      0   9 -0.758000     1.395611882    20.297948837     6.052994728
     92      0  10 -0.683000     1.769282341    23.103509903     5.987174988
     93      0  11  1.448000     3.392194986    26.293123245     4.984720707
     94      0   2  1.100000     2.550395250    18.669784546     2.283121347
     95      0   3  1.100000     2.618008852    24.719051361     2.281923532
     96      0   4  0.200000     2.876025915    21.186857224     3.791589975
     97      0   5 -0.550000     2.864724636    26.210182190     1.629511118
     98      0   6 -0.550000     3.706629276    19.737195969     1.838339090
     99      0   7 -0.783000     3.729940653    23.707534790     1.621732950
    100      0  12 -0.758000     2.404629707    18.542669296     3.920635462
    101      0  13 -0.758000     2.794634104    24.778551102     3.919637918
    102      0  14 -0.683000     2.420963526    21.972990036     3.985458612
    103      0   1  1.449000     3.393951178    23.291027069     4.987912178
    104      0   2  1.100000     4.235750198    21.899065018     7.689511776
    105      0  15  0.800000     4.168137074    24.865098953     7.690708637
    106      0  16  1.000000     1.594343424    23.421749115     9.972658157
    107      0   4  0.200000     3.910120249    19.381994247     6.181044102
    108      0   5 -0.783000     3.921421289    23.373968124     8.343121529
    109      0   6 -0.550000     3.079516649    20.831653595     8.134293556
    110      0   7 -0.783000     3.056205273    25.876615524     8.350900650
    111      0   8 -0.758000     4.381515980    22.026180267     6.051997185
    112      0   9 -0.758000     3.991512060    24.805597305     6.052994728
    113      0  10 -0.683000     4.365182400    18.595859528     5.987174988
    114      0  11  1.448000     0.796294868    21.785472870     4.984720707
    115      0   2  1.100000    -0.045504685    23.177434921     2.283121347
    116      0   3  0.800000     0.022108918    20.211400986     2.281923532
    117      0   4  0.200000     0.280125856    25.694505692     3.791589975
    118      0   5 -0.783000     0.268824697    21.702531815     1.629511118
    119      0   6 -0.550000     1.110729218    24.244846344     1.838339090
    120      0   7 -0.783000     1.134040594    19.199884415     1.621732950
    121      0  12 -0.758000    -0.191270232    23.050319672     3.920635462
    122      0  13 -0.758000     0.198734045    20.270902634     3.919637918
    123      0  14 -0.683000    -0.174936414    26.480640411     3.985458612
    124      0   1  1.449000     5.989850998     0.752777576     4.987912178
    125      0  17  0.800000     6.831650734     8.376114845     7.689511776
    126      0   3  1.100000     6.764037132     2.326848984     7.690708637
    127      0   4  0.200000     6.506020069     5.859043598     6.181044102
    128      0   5 -0.550000     6.517321110     0.835718334     8.343121529
    129      0   6 -0.783000     5.675416946     7.308703899     8.134293556
    130      0   7 -0.550000     5.652105331     3.338365555     8.350900650
    131      0   8 -0.758000     6.977416039     8.503231049     6.051997185
    132      0   9 -0.758000     6.587411880     2.267348051     6.052994728
    133      0  10 -0.683000     6.961082458     5.072909355     5.987174988
    134      0  11  1.448000     8.583994865     8.262522697     4.984720707
    135      0   2  1.100000     7.742195129     0.639184773     2.283121347
    136      0   3  0.800000     7.809808731     6.688451290     2.281923532
    137      0   4  0.200000     8.067826271     3.156256437     3.791589975
    138      0   5 -0.783000     8.056524277     8.179581642     1.629511118
    139      0   6 -0.783000     8.898428917     1.706596255     1.838339090
    140      0   7 -0.783000     8.921740532     5.676934242     1.621732950
    141      0  12 -0.758000     7.596429825     0.512069046     3.920635462
    142      0  13 -0.758000     7.986433983     6.747951984     3.919637918
    143      0  14 -0.683000     7.612763405     3.942390680     3.985458612
    144      0   1  1.449000     8.585751534     5.260427475     4.987912178
    145      0  17  0.800000     9.427550316     3.868465185     7.689511776
    146      0   3  1.100000     9.359937668     6.834498882     7.690708637
    147      0  16  1.000000     6.786143303     5.391149521     9.972658157
    148      0   4  0.200000     9.101920128     1.351393461     6.181044102
    149      0   5 -0.783000     9.113221169     5.343368530     8.343121529
    150      0   6 -0.783000     8.271316528     2.801053762     8.134293556
    151      0   7 -0.783000     8.248004913     7.846015453     8.350900650
    152      0   8 -0.758000     9.573316574     3.995580912     6.051997185
    153      0   9 -0.758000     9.183312416     6.774998188     6.052994728
    154      0  10 -0.683000     9.556982994     0.565259337     5.987174988
    155      0  11  1.448000     5.988094807     3.754872561     4.984720707
    156      0   2  1.100000     5.146295547     5.146834850     2.283121347
    157      0   3  1.100000     5.213909149     2.180801153     2.281923532
    158      0   4  0.200000     5.471925735     7.663906574     3.791589975
    159      0   5 -0.550000     5.460624695     3.671931744     1.629511118
    160      0   6 -0.783000     6.302529335     6.214246273     1.838339090
    161      0   7 -0.550000     6.325840473     1.169284463     1.621732950
    162      0  12 -0.758000     5.000529766     5.019719124     3.920635462
    163      0  13 -0.758000     5.390533924     2.240302086     3.919637918
    164      0  14 -0.683000     5.016863823     8.450040817     3.985458612
    165      0   1  1.449000     5.989850998     9.768077850     4.987912178
    166      0   2  1.100000     6.831650734    17.391414642     7.689511776
    167      0   3  1.100000     6.764037132    11.342148781     7.690708637
    168      0  16  1.000000     4.190243244     9.898798943     9.972658157
    169      0   4  0.200000     6.506020069    14.874343872     6.181044102
    170      0   5 -0.783000     6.517321110     9.851017952     8.343121529
    171      0   6 -0.783000     5.675416946    16.324003220     8.134293556
    172      0   7 -0.550000     5.652105331    12.353665352     8.350900650
    173      0   8 -0.758000     6.977416039    17.518531799     6.051997185
    174      0   9 -0.758000     6.587411880    11.282648087     6.052994728
    175      0  10 -0.683000     6.961082458    14.088209152     5.987174988
    176      0  11  1.448000     8.583994865    17.277822495     4.984720707
    177      0   2  1.100000     7.742195129     9.654484749     2.283121347
    178      0   3  1.100000     7.809808731    15.703751564     2.281923532
    179      0   4  0.200000     8.067826271    12.171556473     3.791589975
    180      0   5 -0.550000     8.056524277    17.194881439     1.629511118
    181      0   6 -0.783000     8.898428917    10.721896172     1.838339090
    182      0   7 -0.550000     8.921740532    14.692234039     1.621732950
    183      0  12 -0.758000     7.596429825     9.527369499     3.920635462
    184      0  13 -0.758000     7.986433983    15.763252258     3.919637918
    185      0  14 -0.683000     7.612763405    12.957690239     3.985458612
    186      0   1  1.449000     8.585751534    14.275727272     4.987912178
    187      0  17  0.800000     9.427550316    12.883765221     7.689511776
    188      0   3  1.100000     9.359937668    15.849799156     7.690708637
    189      0  16  1.000000     6.786143303    14.406449318     9.972658157
    190      0   4  0.200000     9.101920128    10.366693497     6.181044102
    191      0   5 -0.783000     9.113221169    14.358668327     8.343121529
    192      0   6 -0.783000     8.271316528    11.816353798     8.134293556
    193      0   7 -0.550000     8.248004913    16.861314774     8.350900650
    194      0   8 -0.758000     9.573316574    13.010880470     6.051997185
    195      0   9 -0.758000     9.183312416    15.790298462     6.052994728
    196      0  10 -0.683000     9.556982994     9.580559731     5.987174988
    197      0  11  1.448000     5.988094807    12.770172119     4.984720707
    198      0   2  0.800000     5.146295547    14.162135124     2.283121347
    199      0   3  1.100000     5.213909149    11.196101189     2.281923532
    200      0   4  0.200000     5.471925735    16.679206848     3.791589975
    201      0   5 -0.783000     5.460624695    12.687232018     1.629511118
    202      0   6 -0.783000     6.302529335    15.229546547     1.838339090
    203      0   7 -0.550000     6.325840473    10.184584618     1.621732950
    204      0  12 -0.758000     5.000529766    14.035018921     3.920635462
    205      0  13 -0.758000     5.390533924    11.255601883     3.919637918
    206      0  14 -0.683000     5.016863823    17.465341568     3.985458612
    207      0   1  1.449000     5.989850998    18.783376694     4.987912178
    208      0   2  1.100000     6.831650734    26.406715393     7.689511776